# vtk DataFile Version 4.2
2D Análise Estrutural e Termico
ASCII               
DATASET UNSTRUCTURED_GRID
FIELD FieldData 1
NODES 1 2 int
5137 10000

POINTS 5137 double
-0.0 -0.0 0.0
0.254 -0.0 0.0
0.254 0.102 0.0
-0.0 0.102 0.0
0.00262 -1e-05 0.0
0.00523 -1e-05 0.0
0.00785 -1e-05 0.0
0.01047 -2e-05 0.0
0.01309 -2e-05 0.0
0.01571 -2e-05 0.0
0.01832 -2e-05 0.0
0.02094 -2e-05 0.0
0.02356 -2e-05 0.0
0.02618 -3e-05 0.0
0.0288 -3e-05 0.0
0.03142 -3e-05 0.0
0.03404 -3e-05 0.0
0.03666 -3e-05 0.0
0.03928 -3e-05 0.0
0.04189 -3e-05 0.0
0.04451 -3e-05 0.0
0.04713 -3e-05 0.0
0.04975 -3e-05 0.0
0.05237 -3e-05 0.0
0.05499 -3e-05 0.0
0.05761 -3e-05 0.0
0.06023 -3e-05 0.0
0.06285 -3e-05 0.0
0.06546 -3e-05 0.0
0.06808 -3e-05 0.0
0.0707 -3e-05 0.0
0.07332 -3e-05 0.0
0.07594 -3e-05 0.0
0.07856 -3e-05 0.0
0.08118 -3e-05 0.0
0.08379 -3e-05 0.0
0.08641 -3e-05 0.0
0.08903 -3e-05 0.0
0.09165 -3e-05 0.0
0.09427 -3e-05 0.0
0.09689 -3e-05 0.0
0.09951 -3e-05 0.0
0.10212 -3e-05 0.0
0.10474 -3e-05 0.0
0.10736 -3e-05 0.0
0.10998 -3e-05 0.0
0.1126 -3e-05 0.0
0.11522 -3e-05 0.0
0.11784 -3e-05 0.0
0.12045 -3e-05 0.0
0.12307 -3e-05 0.0
0.12569 -3e-05 0.0
0.12831 -3e-05 0.0
0.13093 -3e-05 0.0
0.13355 -3e-05 0.0
0.13616 -3e-05 0.0
0.13878 -3e-05 0.0
0.1414 -3e-05 0.0
0.14402 -3e-05 0.0
0.14664 -3e-05 0.0
0.14926 -3e-05 0.0
0.15188 -3e-05 0.0
0.15449 -3e-05 0.0
0.15711 -3e-05 0.0
0.15973 -3e-05 0.0
0.16235 -3e-05 0.0
0.16497 -3e-05 0.0
0.16759 -3e-05 0.0
0.17021 -3e-05 0.0
0.17282 -3e-05 0.0
0.17544 -3e-05 0.0
0.17806 -3e-05 0.0
0.18068 -3e-05 0.0
0.1833 -3e-05 0.0
0.18592 -3e-05 0.0
0.18854 -3e-05 0.0
0.19115 -3e-05 0.0
0.19377 -3e-05 0.0
0.19639 -3e-05 0.0
0.19901 -3e-05 0.0
0.20163 -3e-05 0.0
0.20425 -3e-05 0.0
0.20687 -3e-05 0.0
0.20949 -3e-05 0.0
0.21211 -3e-05 0.0
0.21472 -3e-05 0.0
0.21734 -3e-05 0.0
0.21996 -3e-05 0.0
0.22258 -3e-05 0.0
0.2252 -3e-05 0.0
0.22782 -3e-05 0.0
0.23044 -2e-05 0.0
0.23306 -2e-05 0.0
0.23567 -2e-05 0.0
0.23829 -2e-05 0.0
0.24091 -2e-05 0.0
0.24353 -2e-05 0.0
0.24615 -1e-05 0.0
0.24877 -1e-05 0.0
0.25138 -1e-05 0.0
0.254 0.00262 0.0
0.254 0.00523 0.0
0.254 0.00785 0.0
0.254 0.01046 0.0
0.254 0.01308 0.0
0.254 0.01569 0.0
0.254 0.01831 0.0
0.254 0.02092 0.0
0.254 0.02354 0.0
0.254 0.02615 0.0
0.254 0.02877 0.0
0.254 0.03138 0.0
0.254 0.034 0.0
0.254 0.03662 0.0
0.254 0.03923 0.0
0.254 0.04185 0.0
0.254 0.04446 0.0
0.254 0.04708 0.0
0.254 0.04969 0.0
0.254 0.05231 0.0
0.254 0.05492 0.0
0.254 0.05754 0.0
0.254 0.06015 0.0
0.254 0.06277 0.0
0.254 0.06538 0.0
0.254 0.068 0.0
0.254 0.07062 0.0
0.254 0.07323 0.0
0.254 0.07585 0.0
0.254 0.07846 0.0
0.254 0.08108 0.0
0.254 0.08369 0.0
0.254 0.08631 0.0
0.254 0.08892 0.0
0.254 0.09154 0.0
0.254 0.09415 0.0
0.254 0.09677 0.0
0.254 0.09938 0.0
0.25138 0.10201 0.0
0.24877 0.10201 0.0
0.24615 0.10201 0.0
0.24353 0.10202 0.0
0.24091 0.10202 0.0
0.23829 0.10202 0.0
0.23567 0.10202 0.0
0.23306 0.10202 0.0
0.23044 0.10202 0.0
0.22782 0.10203 0.0
0.2252 0.10203 0.0
0.22258 0.10203 0.0
0.21996 0.10203 0.0
0.21734 0.10203 0.0
0.21472 0.10203 0.0
0.21211 0.10203 0.0
0.20949 0.10203 0.0
0.20687 0.10203 0.0
0.20425 0.10203 0.0
0.20163 0.10203 0.0
0.19901 0.10203 0.0
0.19639 0.10203 0.0
0.19377 0.10203 0.0
0.19115 0.10203 0.0
0.18854 0.10203 0.0
0.18592 0.10203 0.0
0.1833 0.10203 0.0
0.18068 0.10203 0.0
0.17806 0.10203 0.0
0.17544 0.10203 0.0
0.17282 0.10203 0.0
0.17021 0.10203 0.0
0.16759 0.10203 0.0
0.16497 0.10203 0.0
0.16235 0.10203 0.0
0.15973 0.10203 0.0
0.15711 0.10203 0.0
0.15449 0.10203 0.0
0.15188 0.10203 0.0
0.14926 0.10203 0.0
0.14664 0.10203 0.0
0.14402 0.10203 0.0
0.1414 0.10203 0.0
0.13878 0.10203 0.0
0.13616 0.10203 0.0
0.13355 0.10203 0.0
0.13093 0.10203 0.0
0.12831 0.10203 0.0
0.12569 0.10203 0.0
0.12307 0.10203 0.0
0.12045 0.10203 0.0
0.11784 0.10203 0.0
0.11522 0.10203 0.0
0.1126 0.10203 0.0
0.10998 0.10203 0.0
0.10736 0.10203 0.0
0.10474 0.10203 0.0
0.10212 0.10203 0.0
0.09951 0.10203 0.0
0.09689 0.10203 0.0
0.09427 0.10203 0.0
0.09165 0.10203 0.0
0.08903 0.10203 0.0
0.08641 0.10203 0.0
0.08379 0.10203 0.0
0.08118 0.10203 0.0
0.07856 0.10203 0.0
0.07594 0.10203 0.0
0.07332 0.10203 0.0
0.0707 0.10203 0.0
0.06808 0.10203 0.0
0.06546 0.10203 0.0
0.06285 0.10203 0.0
0.06023 0.10203 0.0
0.05761 0.10203 0.0
0.05499 0.10203 0.0
0.05237 0.10203 0.0
0.04975 0.10203 0.0
0.04713 0.10203 0.0
0.04451 0.10203 0.0
0.04189 0.10203 0.0
0.03928 0.10203 0.0
0.03666 0.10203 0.0
0.03404 0.10203 0.0
0.03142 0.10203 0.0
0.0288 0.10203 0.0
0.02618 0.10203 0.0
0.02356 0.10202 0.0
0.02094 0.10202 0.0
0.01833 0.10202 0.0
0.01571 0.10202 0.0
0.01309 0.10202 0.0
0.01047 0.10202 0.0
0.00785 0.10201 0.0
0.00523 0.10201 0.0
0.00262 0.10201 0.0
-0.0 0.09938 0.0
-0.0 0.09677 0.0
0.0 0.09415 0.0
0.0 0.09154 0.0
0.0 0.08892 0.0
0.0 0.08631 0.0
0.0 0.08369 0.0
0.0 0.08108 0.0
0.0 0.07846 0.0
0.0 0.07585 0.0
0.0 0.07323 0.0
0.0 0.07062 0.0
0.0 0.068 0.0
0.0 0.06538 0.0
0.0 0.06277 0.0
0.0 0.06015 0.0
0.0 0.05754 0.0
0.0 0.05492 0.0
0.0 0.05231 0.0
0.0 0.04969 0.0
0.0 0.04708 0.0
0.0 0.04446 0.0
0.0 0.04185 0.0
0.0 0.03923 0.0
0.0 0.03662 0.0
0.0 0.034 0.0
0.0 0.03138 0.0
0.0 0.02877 0.0
0.0 0.02615 0.0
0.0 0.02354 0.0
0.0 0.02092 0.0
0.0 0.01831 0.0
0.0 0.01569 0.0
0.0 0.01308 0.0
0.0 0.01046 0.0
0.0 0.00785 0.0
-0.0 0.00523 0.0
-0.0 0.00262 0.0
0.20336 0.05071 0.0
0.05092 0.05098 0.0
0.13224 0.051 0.0
0.09141 0.04209 0.0
0.16781 0.0649 0.0
0.17624 0.03285 0.0
0.10649 0.07002 0.0
0.07559 0.0713 0.0
0.22413 0.07214 0.0
0.02987 0.07214 0.0
0.02987 0.02986 0.0
0.22413 0.02986 0.0
0.06711 0.02802 0.0
0.1161 0.02813 0.0
0.14861 0.02775 0.0
0.19192 0.07532 0.0
0.14374 0.07536 0.0
0.19945 0.02561 0.0
0.0527 0.0783 0.0
0.23162 0.051 0.0
0.02242 0.05108 0.0
0.15355 0.04861 0.0
0.07211 0.04983 0.0
0.09621 0.02107 0.0
0.11104 0.04926 0.0
0.12359 0.08113 0.0
0.04828 0.02065 0.0
0.18304 0.05132 0.0
0.09081 0.08234 0.0
0.17432 0.08228 0.0
0.2091 0.08342 0.0
0.1324 0.01889 0.0
0.09095 0.06099 0.0
0.16418 0.01859 0.0
0.01727 0.08492 0.0
0.23651 0.08452 0.0
0.23651 0.01748 0.0
0.01705 0.01734 0.0
0.1841 0.01731 0.0
0.15679 0.08533 0.0
0.07925 0.01711 0.0
0.12287 0.06451 0.0
0.2143 0.0168 0.0
0.20856 0.06656 0.0
0.06768 0.08548 0.0
0.1309 0.03479 0.0
0.03819 0.08596 0.0
0.06039 0.06423 0.0
0.04429 0.03612 0.0
0.1081 0.08561 0.0
0.03664 0.05732 0.0
0.21757 0.04441 0.0
0.1925 0.03895 0.0
0.23835 0.06527 0.0
0.01576 0.06533 0.0
0.23824 0.03667 0.0
0.01565 0.03674 0.0
0.1686 0.04602 0.0
0.03382 0.01518 0.0
0.14403 0.06045 0.0
0.10954 0.01493 0.0
0.06118 0.01431 0.0
0.08107 0.03161 0.0
0.16162 0.03349 0.0
0.22207 0.0869 0.0
0.13638 0.088 0.0
0.06145 0.04093 0.0
0.10492 0.03673 0.0
0.14496 0.01374 0.0
0.18173 0.06527 0.0
0.21975 0.05834 0.0
0.18662 0.08826 0.0
0.19492 0.06184 0.0
0.1563 0.0716 0.0
0.20566 0.03693 0.0
0.0339 0.04428 0.0
0.04773 0.06594 0.0
0.14314 0.03984 0.0
0.07979 0.08904 0.0
0.19561 0.01269 0.0
0.11949 0.04032 0.0
0.12172 0.01224 0.0
0.10282 0.05851 0.0
0.22586 0.01226 0.0
0.19872 0.08984 0.0
0.05667 0.08998 0.0
0.05529 0.03007 0.0
0.13417 0.06757 0.0
0.079 0.05967 0.0
0.18692 0.02849 0.0
0.17411 0.0117 0.0
0.15672 0.05986 0.0
0.08748 0.07117 0.0
0.02787 0.09017 0.0
0.24266 0.04753 0.0
0.01134 0.05447 0.0
0.08997 0.01134 0.0
0.07235 0.039 0.0
0.14734 0.09072 0.0
0.21299 0.02787 0.0
0.0639 0.07514 0.0
0.08331 0.04922 0.0
0.09827 0.09087 0.0
0.2429 0.07552 0.0
0.24274 0.02614 0.0
0.01126 0.07586 0.0
0.01124 0.02683 0.0
0.02618 0.06146 0.0
0.22795 0.04044 0.0
0.16641 0.09082 0.0
0.04061 0.07506 0.0
0.12188 0.05327 0.0
0.11792 0.09113 0.0
0.15632 0.01091 0.0
0.06137 0.05332 0.0
0.10018 0.04822 0.0
0.04395 0.01028 0.0
0.09213 0.03085 0.0
0.16673 0.07517 0.0
0.10564 0.02608 0.0
0.11657 0.0737 0.0
0.0712 0.01065 0.0
0.17383 0.02262 0.0
0.18224 0.04085 0.0
0.1731 0.0554 0.0
0.11309 0.05981 0.0
0.20237 0.07513 0.0
0.03988 0.02692 0.0
0.13815 0.02709 0.0
0.10089 0.07884 0.0
0.10024 0.0103 0.0
0.13314 0.07733 0.0
0.02476 0.01033 0.0
0.20598 0.01024 0.0
0.18164 0.07581 0.0
0.01024 0.09177 0.0
0.24376 0.01023 0.0
0.0102 0.01044 0.0
0.24384 0.0918 0.0
0.19314 0.04874 0.0
0.02542 0.03917 0.0
0.22829 0.06292 0.0
0.14245 0.05017 0.0
0.04648 0.09195 0.0
0.09656 0.06858 0.0
0.21442 0.07478 0.0
0.15295 0.03857 0.0
0.17752 0.09167 0.0
0.21356 0.09264 0.0
0.0807 0.07924 0.0
0.00935 0.04537 0.0
0.24465 0.05663 0.0
0.12589 0.02631 0.0
0.1368 0.00957 0.0
0.15501 0.02041 0.0
0.12794 0.09239 0.0
0.06912 0.05955 0.0
0.02128 0.07493 0.0
0.02079 0.02656 0.0
0.23317 0.02672 0.0
0.23321 0.07544 0.0
0.05348 0.0096 0.0
0.2311 0.09272 0.0
0.08935 0.09255 0.0
0.2101 0.05725 0.0
0.08696 0.02311 0.0
0.04296 0.04501 0.0
0.03013 0.08112 0.0
0.16409 0.0542 0.0
0.22223 0.02106 0.0
0.07103 0.01952 0.0
0.05154 0.04202 0.0
0.09221 0.05177 0.0
0.16542 0.00901 0.0
0.08088 0.03987 0.0
0.18776 0.0095 0.0
0.23378 0.00938 0.0
0.17435 0.07041 0.0
0.03675 0.06694 0.0
0.12968 0.05961 0.0
0.1279 0.0432 0.0
0.07205 0.09311 0.0
0.12609 0.07291 0.0
0.01922 0.09323 0.0
0.02574 0.01951 0.0
0.14802 0.06817 0.0
0.14896 0.08229 0.0
0.21739 0.06652 0.0
0.05284 0.05999 0.0
0.21759 0.03537 0.0
0.16043 0.04391 0.0
0.03577 0.03601 0.0
0.19217 0.02053 0.0
0.21766 0.00875 0.0
0.05647 0.02217 0.0
0.11685 0.01942 0.0
0.20579 0.01884 0.0
0.15529 0.09382 0.0
0.08173 0.0085 0.0
0.16701 0.02666 0.0
0.16901 0.03753 0.0
0.20867 0.04439 0.0
0.24521 0.01869 0.0
0.24547 0.0835 0.0
0.00849 0.08346 0.0
0.00841 0.01886 0.0
0.223 0.05075 0.0
0.18713 0.05879 0.0
0.20035 0.04282 0.0
0.03512 0.09377 0.0
0.05437 0.07001 0.0
0.04531 0.05723 0.0
0.22631 0.08032 0.0
0.06377 0.09371 0.0
0.07243 0.0787 0.0
[...]
CELL_DATA 10000
VECTORS Deformacao_Termica float
0.00046800000007 0.00046800000007 0.0
0.00046800000007 0.00046800000007 0.0
0.00046800000007 0.00046800000007 0.0
0.00046800000007 0.00046800000007 0.0
0.00046800000007 0.00046800000007 0.0
0.00046800000007 0.00046800000007 0.0
0.00046800000007 0.00046800000007 0.0
0.00046800000007 0.00046800000007 0.0
0.00046800000007 0.00046800000007 0.0
0.00046800000007 0.00046800000007 0.0
0.00046800000007 0.00046800000007 0.0
0.00046800000007 0.00046800000007 0.0
0.00046800000007 0.00046800000007 0.0
0.00046800000007 0.00046800000007 0.0
0.00046800000007 0.00046800000007 0.0
0.00046800000007 0.00046800000007 0.0
0.00046800000007 0.00046800000007 0.0
0.00046800000007 0.00046800000007 0.0
0.00046800000007 0.00046800000007 0.0
0.00046800000007 0.00046800000007 0.0
0.00046800000007 0.00046800000007 0.0
0.00046800000007 0.00046800000007 0.0
0.00046800000007 0.00046800000007 0.0
0.00046800000007 0.00046800000007 0.0
0.00046800000007 0.00046800000007 0.0
0.00046800000007 0.00046800000007 0.0
0.00046800000007 0.00046800000007 0.0
0.00046800000007 0.00046800000007 0.0
0.00046800000007 0.00046800000007 0.0
0.00046800000007 0.00046800000007 0.0
0.00046800000007 0.00046800000007 0.0
0.00046800000007 0.00046800000007 0.0
0.00046800000007 0.00046800000007 0.0
0.00046800000007 0.00046800000007 0.0
0.00046800000007 0.00046800000007 0.0
0.00046800000007 0.00046800000007 0.0
0.00046800000007 0.00046800000007 0.0
0.00046800000007 0.00046800000007 0.0
0.00046800000007 0.00046800000007 0.0
0.00046800000007 0.00046800000007 0.0
0.00046800000007 0.00046800000007 0.0
0.00046800000007 0.00046800000007 0.0
0.00046800000007 0.00046800000007 0.0
0.00046800000007 0.00046800000007 0.0
0.00046800000007 0.00046800000007 0.0
0.00046800000007 0.00046800000007 0.0
0.00046800000007 0.00046800000007 0.0
0.00046800000007 0.00046800000007 0.0
0.00046800000007 0.00046800000007 0.0
0.00046800000007 0.00046800000007 0.0
0.00046800000007 0.00046800000007 0.0
0.00046800000007 0.00046800000007 0.0
0.00046800000007 0.00046800000007 0.0
0.00046800000007 0.00046800000007 0.0
0.00046800000007 0.00046800000007 0.0
0.00046800000007 0.00046800000007 0.0
0.00046800000007 0.00046800000007 0.0
0.00046800000007 0.00046800000007 0.0
0.00046800000007 0.00046800000007 0.0
0.00046800000007 0.00046800000007 0.0
0.00046800000007 0.00046800000007 0.0
0.00046800000007 0.00046800000007 0.0
0.00046800000007 0.00046800000007 0.0
0.00046800000007 0.00046800000007 0.0
0.00046800000007 0.00046800000007 0.0
0.00046800000007 0.00046800000007 0.0
0.00046800000007 0.00046800000007 0.0
0.00046800000007 0.00046800000007 0.0
0.00046800000007 0.00046800000007 0.0
0.00046800000007 0.00046800000007 0.0
0.00046800000007 0.00046800000007 0.0
0.00046800000007 0.00046800000007 0.0
0.00046800000007 0.00046800000007 0.0
0.00046800000007 0.00046800000007 0.0
0.00046800000007 0.00046800000007 0.0
0.00046800000007 0.00046800000007 0.0
0.00046800000007 0.00046800000007 0.0
0.00046800000007 0.00046800000007 0.0
0.00046800000007 0.00046800000007 0.0
0.00046800000007 0.00046800000007 0.0
0.00046800000007 0.00046800000007 0.0
0.00046800000007 0.00046800000007 0.0
0.00046800000007 0.00046800000007 0.0
0.00046800000007 0.00046800000007 0.0
0.00046800000007 0.00046800000007 0.0
0.00046800000007 0.00046800000007 0.0
0.00046800000007 0.00046800000007 0.0
0.00046800000007 0.00046800000007 0.0
0.00046800000007 0.00046800000007 0.0
0.00046800000007 0.00046800000007 0.0
0.00046800000007 0.00046800000007 0.0
0.00046800000007 0.00046800000007 0.0
0.00046800000007 0.00046800000007 0.0
0.00046800000007 0.00046800000007 0.0
0.00046800000007 0.00046800000007 0.0
0.00046800000007 0.00046800000007 0.0
0.00046800000007 0.00046800000007 0.0
0.00046800000007 0.00046800000007 0.0
0.00046800000007 0.00046800000007 0.0
0.00046800000007 0.00046800000007 0.0
0.00046800000007 0.00046800000007 0.0
0.00046800000007 0.00046800000007 0.0
0.00046800000007 0.00046800000007 0.0
0.00046800000007 0.00046800000007 0.0
0.00046800000007 0.00046800000007 0.0
0.00046800000007 0.00046800000007 0.0
0.00046800000007 0.00046800000007 0.0
0.00046800000007 0.00046800000007 0.0
0.00046800000007 0.00046800000007 0.0
0.00046800000007 0.00046800000007 0.0
0.00046800000007 0.00046800000007 0.0
0.00046800000007 0.00046800000007 0.0
0.00046800000007 0.00046800000007 0.0
0.00046800000007 0.00046800000007 0.0
0.00046800000007 0.00046800000007 0.0
0.00046800000007 0.00046800000007 0.0
0.00046800000007 0.00046800000007 0.0
0.00046800000007 0.00046800000007 0.0
0.00046800000007 0.00046800000007 0.0
0.00046800000007 0.00046800000007 0.0
0.00046800000007 0.00046800000007 0.0
0.00046800000007 0.00046800000007 0.0
0.00046800000007 0.00046800000007 0.0
0.00046800000007 0.00046800000007 0.0
0.00046800000007 0.00046800000007 0.0
0.00046800000007 0.00046800000007 0.0
0.00046800000007 0.00046800000007 0.0
0.00046800000007 0.00046800000007 0.0
0.00046800000007 0.00046800000007 0.0
0.00046800000007 0.00046800000007 0.0
0.00046800000007 0.00046800000007 0.0
0.00046800000007 0.00046800000007 0.0
0.00046800000007 0.00046800000007 0.0
0.00046800000007 0.00046800000007 0.0
0.00046800000007 0.00046800000007 0.0
0.00046800000007 0.00046800000007 0.0
0.00046800000007 0.00046800000007 0.0
0.00046800000007 0.00046800000007 0.0
0.00046800000007 0.00046800000007 0.0
0.00046800000007 0.00046800000007 0.0
0.00046800000007 0.00046800000007 0.0
0.00046800000007 0.00046800000007 0.0
0.00046800000007 0.00046800000007 0.0
0.00046800000007 0.00046800000007 0.0
0.00046800000007 0.00046800000007 0.0
0.00046800000007 0.00046800000007 0.0
0.00046800000007 0.00046800000007 0.0
0.00046800000007 0.00046800000007 0.0
0.00046800000007 0.00046800000007 0.0
0.00046800000007 0.00046800000007 0.0
0.00046800000007 0.00046800000007 0.0
0.00046800000007 0.00046800000007 0.0
0.00046800000007 0.00046800000007 0.0
0.00046800000007 0.00046800000007 0.0
0.00046800000007 0.00046800000007 0.0
0.00046800000007 0.00046800000007 0.0
0.00046800000007 0.00046800000007 0.0
0.00046800000007 0.00046800000007 0.0
0.00046800000007 0.00046800000007 0.0
0.00046800000007 0.00046800000007 0.0
0.00046800000007 0.00046800000007 0.0
0.00046800000007 0.00046800000007 0.0
0.00046800000007 0.00046800000007 0.0
0.00046800000007 0.00046800000007 0.0
0.00046800000007 0.00046800000007 0.0
0.00046800000007 0.00046800000007 0.0
0.00046800000007 0.00046800000007 0.0
0.00046800000007 0.00046800000007 0.0
0.00046800000007 0.00046800000007 0.0
0.00046800000007 0.00046800000007 0.0
0.00046800000007 0.00046800000007 0.0
0.00046800000007 0.00046800000007 0.0
0.00046800000007 0.00046800000007 0.0
0.00046800000007 0.00046800000007 0.0
0.00046800000007 0.00046800000007 0.0
0.00046800000007 0.00046800000007 0.0
0.00046800000007 0.00046800000007 0.0
0.00046800000007 0.00046800000007 0.0
0.00046800000007 0.00046800000007 0.0
0.00046800000007 0.00046800000007 0.0
0.00046800000007 0.00046800000007 0.0
0.00046800000007 0.00046800000007 0.0
0.00046800000007 0.00046800000007 0.0
0.00046800000007 0.00046800000007 0.0
0.00046800000007 0.00046800000007 0.0
0.00046800000007 0.00046800000007 0.0
0.00046800000007 0.00046800000007 0.0
0.00046800000007 0.00046800000007 0.0
0.00046800000007 0.00046800000007 0.0
0.00046800000007 0.00046800000007 0.0
0.00046800000007 0.00046800000007 0.0
0.00046800000007 0.00046800000007 0.0
0.00046800000007 0.00046800000007 0.0
0.00046800000007 0.00046800000007 0.0
0.00046800000007 0.00046800000007 0.0
0.00046800000007 0.00046800000007 0.0
0.00046800000007 0.00046800000007 0.0
0.00046800000007 0.00046800000007 0.0
0.00046800000007 0.00046800000007 0.0
0.00046800000007 0.00046800000007 0.0
0.00046800000007 0.00046800000007 0.0
0.00046800000007 0.00046800000007 0.0
0.00046800000007 0.00046800000007 0.0
0.00046800000007 0.00046800000007 0.0
0.00046800000007 0.00046800000007 0.0
0.00046800000007 0.00046800000007 0.0
0.00046800000007 0.00046800000007 0.0
0.00046800000007 0.00046800000007 0.0
0.00046800000007 0.00046800000007 0.0
0.00046800000007 0.00046800000007 0.0
0.00046800000007 0.00046800000007 0.0
0.00046800000007 0.00046800000007 0.0
0.00046800000007 0.00046800000007 0.0
0.00046800000007 0.00046800000007 0.0
0.00046800000007 0.00046800000007 0.0
0.00046800000007 0.00046800000007 0.0
0.00046800000007 0.00046800000007 0.0
0.00046800000007 0.00046800000007 0.0
0.00046800000007 0.00046800000007 0.0
0.00046800000007 0.00046800000007 0.0
0.00046800000007 0.00046800000007 0.0
0.00046800000007 0.00046800000007 0.0
0.00046800000007 0.00046800000007 0.0
0.00046800000007 0.00046800000007 0.0
0.00046800000007 0.00046800000007 0.0
0.00046800000007 0.00046800000007 0.0
0.00046800000007 0.00046800000007 0.0
0.00046800000007 0.00046800000007 0.0
0.00046800000007 0.00046800000007 0.0
0.00046800000007 0.00046800000007 0.0
0.00046800000007 0.00046800000007 0.0
0.00046800000007 0.00046800000007 0.0
0.00046800000007 0.00046800000007 0.0
0.00046800000007 0.00046800000007 0.0
0.00046800000007 0.00046800000007 0.0
0.00046800000007 0.00046800000007 0.0
0.00046800000007 0.00046800000007 0.0
0.00046800000007 0.00046800000007 0.0
0.00046800000007 0.00046800000007 0.0
0.00046800000007 0.00046800000007 0.0
0.00046800000007 0.00046800000007 0.0
0.00046800000007 0.00046800000007 0.0
0.00046800000007 0.00046800000007 0.0
0.00046800000007 0.00046800000007 0.0
0.00046800000007 0.00046800000007 0.0
0.00046800000007 0.00046800000007 0.0
0.00046800000007 0.00046800000007 0.0
0.00046800000007 0.00046800000007 0.0
0.00046800000007 0.00046800000007 0.0
0.00046800000007 0.00046800000007 0.0
0.00046800000007 0.00046800000007 0.0
0.00046800000007 0.00046800000007 0.0
0.00046800000007 0.00046800000007 0.0
0.00046800000007 0.00046800000007 0.0
0.00046800000007 0.00046800000007 0.0
0.00046800000007 0.00046800000007 0.0
0.00046800000007 0.00046800000007 0.0
0.00046800000007 0.00046800000007 0.0
0.00046800000007 0.00046800000007 0.0
0.00046800000007 0.00046800000007 0.0
0.00046800000007 0.00046800000007 0.0
0.00046800000007 0.00046800000007 0.0
0.00046800000007 0.00046800000007 0.0
0.00046800000007 0.00046800000007 0.0
0.00046800000007 0.00046800000007 0.0
0.00046800000007 0.00046800000007 0.0
0.00046800000007 0.00046800000007 0.0
0.00046800000007 0.00046800000007 0.0
0.00046800000007 0.00046800000007 0.0
0.00046800000007 0.00046800000007 0.0
0.00046800000007 0.00046800000007 0.0
0.00046800000007 0.00046800000007 0.0
0.00046800000007 0.00046800000007 0.0
0.00046800000007 0.00046800000007 0.0
0.00046800000007 0.00046800000007 0.0
0.00046800000007 0.00046800000007 0.0
0.00046800000007 0.00046800000007 0.0
0.00046800000007 0.00046800000007 0.0
0.00046800000007 0.00046800000007 0.0
0.00046800000007 0.00046800000007 0.0
0.00046800000007 0.00046800000007 0.0
0.00046800000007 0.00046800000007 0.0
0.00046800000007 0.00046800000007 0.0
0.00046800000007 0.00046800000007 0.0
0.00046800000007 0.00046800000007 0.0
0.00046800000007 0.00046800000007 0.0
0.00046800000007 0.00046800000007 0.0
0.00046800000007 0.00046800000007 0.0
0.00046800000007 0.00046800000007 0.0
0.00046800000007 0.00046800000007 0.0
0.00046800000007 0.00046800000007 0.0
0.00046800000007 0.00046800000007 0.0
0.00046800000007 0.00046800000007 0.0
0.00046800000007 0.00046800000007 0.0
0.00046800000007 0.00046800000007 0.0
0.00046800000007 0.00046800000007 0.0
0.00046800000007 0.00046800000007 0.0
0.00046800000007 0.00046800000007 0.0
0.00046800000007 0.00046800000007 0.0
0.00046800000007 0.00046800000007 0.0
0.00046800000007 0.00046800000007 0.0
0.00046800000007 0.00046800000007 0.0
0.00046800000007 0.00046800000007 0.0
0.00046800000007 0.00046800000007 0.0
0.00046800000007 0.00046800000007 0.0
0.00046800000007 0.00046800000007 0.0
0.00046800000007 0.00046800000007 0.0
0.00046800000007 0.00046800000007 0.0
0.00046800000007 0.00046800000007 0.0
0.00046800000007 0.00046800000007 0.0
0.00046800000007 0.00046800000007 0.0
0.00046800000007 0.00046800000007 0.0
0.00046800000007 0.00046800000007 0.0
0.00046800000007 0.00046800000007 0.0
0.00046800000007 0.00046800000007 0.0
0.00046800000007 0.00046800000007 0.0
0.00046800000007 0.00046800000007 0.0
0.00046800000007 0.00046800000007 0.0
0.00046800000007 0.00046800000007 0.0
0.00046800000007 0.00046800000007 0.0
0.00046800000007 0.00046800000007 0.0
0.00046800000007 0.00046800000007 0.0
0.00046800000007 0.00046800000007 0.0
0.00046800000007 0.00046800000007 0.0
0.00046800000007 0.00046800000007 0.0
0.00046800000007 0.00046800000007 0.0
0.00046800000007 0.00046800000007 0.0
0.00046800000007 0.00046800000007 0.0
0.00046800000007 0.00046800000007 0.0
0.00046800000007 0.00046800000007 0.0
0.00046800000007 0.00046800000007 0.0
0.00046800000007 0.00046800000007 0.0
0.00046800000007 0.00046800000007 0.0
0.00046800000007 0.00046800000007 0.0
0.00046800000007 0.00046800000007 0.0
0.00046800000007 0.00046800000007 0.0
0.00046800000007 0.00046800000007 0.0
0.00046800000007 0.00046800000007 0.0
0.00046800000007 0.00046800000007 0.0
0.00046800000007 0.00046800000007 0.0
0.00046800000007 0.00046800000007 0.0
0.00046800000007 0.00046800000007 0.0
0.00046800000007 0.00046800000007 0.0
0.00046800000007 0.00046800000007 0.0
0.00046800000007 0.00046800000007 0.0
0.00046800000007 0.00046800000007 0.0
0.00046800000007 0.00046800000007 0.0
0.00046800000007 0.00046800000007 0.0
0.00046800000007 0.00046800000007 0.0
0.00046800000007 0.00046800000007 0.0
0.00046800000007 0.00046800000007 0.0
0.00046800000007 0.00046800000007 0.0
0.00046800000007 0.00046800000007 0.0
0.00046800000007 0.00046800000007 0.0
0.00046800000007 0.00046800000007 0.0
0.00046800000007 0.00046800000007 0.0
0.00046800000007 0.00046800000007 0.0
0.00046800000007 0.00046800000007 0.0
0.00046800000007 0.00046800000007 0.0
0.00046800000007 0.00046800000007 0.0
0.00046800000007 0.00046800000007 0.0
0.00046800000007 0.00046800000007 0.0
0.00046800000007 0.00046800000007 0.0
0.00046800000007 0.00046800000007 0.0
0.00046800000007 0.00046800000007 0.0
0.00046800000007 0.00046800000007 0.0
0.00046800000007 0.00046800000007 0.0
0.00046800000007 0.00046800000007 0.0
0.00046800000007 0.00046800000007 0.0
0.00046800000007 0.00046800000007 0.0
0.00046800000007 0.00046800000007 0.0
0.00046800000007 0.00046800000007 0.0
0.00046800000007 0.00046800000007 0.0
0.00046800000007 0.00046800000007 0.0
0.00046800000007 0.00046800000007 0.0
0.00046800000007 0.00046800000007 0.0
0.00046800000007 0.00046800000007 0.0
0.00046800000007 0.00046800000007 0.0
0.00046800000007 0.00046800000007 0.0
0.00046800000007 0.00046800000007 0.0
0.00046800000007 0.00046800000007 0.0
0.00046800000007 0.00046800000007 0.0
0.00046800000007 0.00046800000007 0.0
0.00046800000007 0.00046800000007 0.0
0.00046800000007 0.00046800000007 0.0
0.00046800000007 0.00046800000007 0.0
0.00046800000007 0.00046800000007 0.0
0.00046800000007 0.00046800000007 0.0
0.00046800000007 0.00046800000007 0.0
0.00046800000007 0.00046800000007 0.0
0.00046800000007 0.00046800000007 0.0
0.00046800000007 0.00046800000007 0.0
0.00046800000007 0.00046800000007 0.0
0.00046800000007 0.00046800000007 0.0
0.00046800000007 0.00046800000007 0.0
0.00046800000007 0.00046800000007 0.0
0.00046800000007 0.00046800000007 0.0
0.00046800000007 0.00046800000007 0.0
0.00046800000007 0.00046800000007 0.0
0.00046800000007 0.00046800000007 0.0
0.00046800000007 0.00046800000007 0.0
0.00046800000007 0.00046800000007 0.0
0.00046800000007 0.00046800000007 0.0
0.00046800000007 0.00046800000007 0.0
0.00046800000007 0.00046800000007 0.0
0.00046800000007 0.00046800000007 0.0
0.00046800000007 0.00046800000007 0.0
0.00046800000007 0.00046800000007 0.0
0.00046800000007 0.00046800000007 0.0
0.00046800000007 0.00046800000007 0.0
0.00046800000007 0.00046800000007 0.0
0.00046800000007 0.00046800000007 0.0
0.00046800000007 0.00046800000007 0.0
0.00046800000007 0.00046800000007 0.0
0.00046800000007 0.00046800000007 0.0
0.00046800000007 0.00046800000007 0.0
0.00046800000007 0.00046800000007 0.0
0.00046800000007 0.00046800000007 0.0
0.00046800000007 0.00046800000007 0.0
0.00046800000007 0.00046800000007 0.0
0.00046800000007 0.00046800000007 0.0
0.00046800000007 0.00046800000007 0.0
0.00046800000007 0.00046800000007 0.0
0.00046800000007 0.00046800000007 0.0
0.00046800000007 0.00046800000007 0.0
0.00046800000007 0.00046800000007 0.0
0.00046800000007 0.00046800000007 0.0
0.00046800000007 0.00046800000007 0.0
0.00046800000007 0.00046800000007 0.0
0.00046800000007 0.00046800000007 0.0
0.00046800000007 0.00046800000007 0.0
0.00046800000007 0.00046800000007 0.0
0.00046800000007 0.00046800000007 0.0
0.00046800000007 0.00046800000007 0.0
0.00046800000007 0.00046800000007 0.0
0.00046800000007 0.00046800000007 0.0
0.00046800000007 0.00046800000007 0.0
0.00046800000007 0.00046800000007 0.0
0.00046800000007 0.00046800000007 0.0
0.00046800000007 0.00046800000007 0.0
0.00046800000007 0.00046800000007 0.0
0.00046800000007 0.00046800000007 0.0
0.00046800000007 0.00046800000007 0.0
0.00046800000007 0.00046800000007 0.0
0.00046800000007 0.00046800000007 0.0
0.00046800000007 0.00046800000007 0.0
0.00046800000007 0.00046800000007 0.0
0.00046800000007 0.00046800000007 0.0
0.00046800000007 0.00046800000007 0.0
0.00046800000007 0.00046800000007 0.0
0.00046800000007 0.00046800000007 0.0
0.00046800000007 0.00046800000007 0.0
0.00046800000007 0.00046800000007 0.0
0.00046800000007 0.00046800000007 0.0
0.00046800000007 0.00046800000007 0.0
0.00046800000007 0.00046800000007 0.0
0.00046800000007 0.00046800000007 0.0
0.00046800000007 0.00046800000007 0.0
0.00046800000007 0.00046800000007 0.0
0.00046800000007 0.00046800000007 0.0
0.00046800000007 0.00046800000007 0.0
0.00046800000007 0.00046800000007 0.0
0.00046800000007 0.00046800000007 0.0
0.00046800000007 0.00046800000007 0.0
0.00046800000007 0.00046800000007 0.0
0.00046800000007 0.00046800000007 0.0
0.00046800000007 0.00046800000007 0.0
0.00046800000007 0.00046800000007 0.0
0.00046800000007 0.00046800000007 0.0
0.00046800000007 0.00046800000007 0.0
0.00046800000007 0.00046800000007 0.0
0.00046800000007 0.00046800000007 0.0
0.00046800000007 0.00046800000007 0.0
0.00046800000007 0.00046800000007 0.0
0.00046800000007 0.00046800000007 0.0
0.00046800000007 0.00046800000007 0.0
0.00046800000007 0.00046800000007 0.0
0.00046800000007 0.00046800000007 0.0
0.00046800000007 0.00046800000007 0.0
0.00046800000007 0.00046800000007 0.0
0.00046800000007 0.00046800000007 0.0
0.00046800000007 0.00046800000007 0.0
0.00046800000007 0.00046800000007 0.0
0.00046800000007 0.00046800000007 0.0
0.00046800000007 0.00046800000007 0.0
0.00046800000007 0.00046800000007 0.0
0.00046800000007 0.00046800000007 0.0
0.00046800000007 0.00046800000007 0.0
0.00046800000007 0.00046800000007 0.0
0.00046800000007 0.00046800000007 0.0
0.00046800000007 0.00046800000007 0.0
0.00046800000007 0.00046800000007 0.0
0.00046800000007 0.00046800000007 0.0
0.00046800000007 0.00046800000007 0.0
0.00046800000007 0.00046800000007 0.0
0.00046800000007 0.00046800000007 0.0
0.00046800000007 0.00046800000007 0.0
0.00046800000007 0.00046800000007 0.0
0.00046800000007 0.00046800000007 0.0
0.00046800000007 0.00046800000007 0.0
0.00046800000007 0.00046800000007 0.0
0.00046800000007 0.00046800000007 0.0
0.00046800000007 0.00046800000007 0.0
0.00046800000007 0.00046800000007 0.0
0.00046800000007 0.00046800000007 0.0
0.00046800000007 0.00046800000007 0.0
0.00046800000007 0.00046800000007 0.0
0.00046800000007 0.00046800000007 0.0
0.00046800000007 0.00046800000007 0.0
0.00046800000007 0.00046800000007 0.0
0.00046800000007 0.00046800000007 0.0