# vtk DataFile Version 4.2
2D Análise Estrutural e Termico
ASCII               
DATASET UNSTRUCTURED_GRID
FIELD FieldData 1
NODES 1 2 int
6218 11972

POINTS 6218 double
-0.0 -0.0 0.0
0.254 -0.0 0.0
0.254 0.102 0.0
-0.0 0.102 0.0
0.152 0.051 0.0
0.00438 -1e-05 0.0
0.00876 -2e-05 0.0
0.01314 -2e-05 0.0
0.01752 -2e-05 0.0
0.0219 -3e-05 0.0
0.02628 -3e-05 0.0
0.03066 -3e-05 0.0
0.03505 -3e-05 0.0
0.03943 -3e-05 0.0
0.04381 -3e-05 0.0
0.04819 -3e-05 0.0
0.05257 -3e-05 0.0
0.05695 -3e-05 0.0
0.06133 -3e-05 0.0
0.06571 -3e-05 0.0
0.07009 -3e-05 0.0
0.07447 -3e-05 0.0
0.07885 -3e-05 0.0
0.08323 -3e-05 0.0
0.08761 -3e-05 0.0
0.09199 -3e-05 0.0
0.09637 -3e-05 0.0
0.10075 -3e-05 0.0
0.10513 -3e-05 0.0
0.10951 -3e-05 0.0
0.11389 -3e-05 0.0
0.11827 -3e-05 0.0
0.12265 -3e-05 0.0
0.12703 -3e-05 0.0
0.13141 -3e-05 0.0
0.13579 -3e-05 0.0
0.14017 -3e-05 0.0
0.14455 -3e-05 0.0
0.14892 -2e-05 0.0
0.1533 -2e-05 0.0
0.15768 -2e-05 0.0
0.16206 -2e-05 0.0
0.16644 -2e-05 0.0
0.17081 -1e-05 0.0
0.17519 -1e-05 0.0
0.17957 -1e-05 0.0
0.18395 -1e-05 0.0
0.18833 -1e-05 0.0
0.19271 -1e-05 0.0
0.19708 -1e-05 0.0
0.20146 -1e-05 0.0
0.20584 -1e-05 0.0
0.21022 -1e-05 0.0
0.2146 -1e-05 0.0
0.21898 -1e-05 0.0
0.22335 -1e-05 0.0
0.22773 -1e-05 0.0
0.23211 -0.0 0.0
0.23649 -0.0 0.0
0.24087 -0.0 0.0
0.24524 -0.0 0.0
0.24962 -0.0 0.0
0.254 0.00425 0.0
0.254 0.0085 0.0
0.254 0.01275 0.0
0.254 0.017 0.0
0.254 0.02125 0.0
0.254 0.0255 0.0
0.254 0.02975 0.0
0.254 0.034 0.0
0.254 0.03825 0.0
0.254 0.0425 0.0
0.254 0.04675 0.0
0.254 0.051 0.0
0.254 0.05525 0.0
0.254 0.0595 0.0
0.254 0.06375 0.0
0.254 0.068 0.0
0.254 0.07225 0.0
0.254 0.0765 0.0
0.254 0.08075 0.0
0.254 0.085 0.0
0.254 0.08925 0.0
0.254 0.0935 0.0
0.254 0.09775 0.0
0.24962 0.102 0.0
0.24524 0.102 0.0
0.24087 0.102 0.0
0.23649 0.102 0.0
0.23211 0.102 0.0
0.22773 0.10201 0.0
0.22335 0.10201 0.0
0.21898 0.10201 0.0
0.2146 0.10201 0.0
0.21022 0.10201 0.0
0.20584 0.10201 0.0
0.20146 0.10201 0.0
0.19708 0.10201 0.0
0.19271 0.10201 0.0
0.18833 0.10201 0.0
0.18395 0.10201 0.0
0.17957 0.10201 0.0
0.17519 0.10201 0.0
0.17081 0.10201 0.0
0.16644 0.10202 0.0
0.16206 0.10202 0.0
0.15768 0.10202 0.0
0.1533 0.10202 0.0
0.14892 0.10202 0.0
0.14455 0.10203 0.0
0.14017 0.10203 0.0
0.13579 0.10203 0.0
0.13141 0.10203 0.0
0.12703 0.10203 0.0
0.12265 0.10203 0.0
0.11827 0.10203 0.0
0.11389 0.10203 0.0
0.10951 0.10203 0.0
0.10513 0.10203 0.0
0.10075 0.10203 0.0
0.09637 0.10203 0.0
0.09199 0.10203 0.0
0.08761 0.10203 0.0
0.08323 0.10203 0.0
0.07885 0.10203 0.0
0.07447 0.10203 0.0
0.07009 0.10203 0.0
0.06571 0.10203 0.0
0.06133 0.10203 0.0
0.05695 0.10203 0.0
0.05257 0.10203 0.0
0.04819 0.10203 0.0
0.04381 0.10203 0.0
0.03943 0.10203 0.0
0.03505 0.10203 0.0
0.03066 0.10203 0.0
0.02628 0.10203 0.0
0.0219 0.10203 0.0
0.01752 0.10202 0.0
0.01314 0.10202 0.0
0.00876 0.10202 0.0
0.00438 0.10201 0.0
0.0 0.09775 0.0
0.0 0.0935 0.0
0.0 0.08925 0.0
0.0 0.085 0.0
0.0 0.08075 0.0
0.0 0.0765 0.0
0.0 0.07225 0.0
0.0 0.068 0.0
0.0 0.06375 0.0
0.0 0.0595 0.0
0.0 0.05525 0.0
0.0 0.051 0.0
0.0 0.04675 0.0
0.0 0.0425 0.0
0.0 0.03825 0.0
0.0 0.034 0.0
0.0 0.02975 0.0
0.0 0.0255 0.0
0.0 0.02125 0.0
0.0 0.017 0.0
0.0 0.01275 0.0
0.0 0.0085 0.0
0.0 0.00425 0.0
0.152 0.05152 0.0
0.15198 0.05205 0.0
0.15196 0.05257 0.0
0.15192 0.05309 0.0
0.15187 0.05361 0.0
0.15181 0.05414 0.0
0.15174 0.05465 0.0
0.15165 0.05517 0.0
0.15156 0.05569 0.0
0.15146 0.0562 0.0
0.15134 0.05671 0.0
0.15122 0.05722 0.0
0.15108 0.05773 0.0
0.15094 0.05823 0.0
0.15078 0.05873 0.0
0.15061 0.05923 0.0
0.15044 0.05972 0.0
0.15025 0.06021 0.0
0.15005 0.06069 0.0
0.14984 0.06118 0.0
0.14963 0.06165 0.0
0.1494 0.06212 0.0
0.14916 0.06259 0.0
0.14891 0.06305 0.0
0.14866 0.06351 0.0
0.14839 0.06396 0.0
0.14812 0.06441 0.0
0.14783 0.06484 0.0
0.14754 0.06528 0.0
0.14723 0.06571 0.0
0.14692 0.06613 0.0
0.1466 0.06654 0.0
0.14627 0.06695 0.0
0.14593 0.06735 0.0
0.14559 0.06774 0.0
0.14523 0.06813 0.0
0.14487 0.0685 0.0
0.1445 0.06888 0.0
0.14412 0.06924 0.0
0.14374 0.06959 0.0
0.14335 0.06994 0.0
0.14295 0.07028 0.0
0.14254 0.07061 0.0
0.14213 0.07093 0.0
0.14171 0.07124 0.0
0.14128 0.07154 0.0
0.14085 0.07184 0.0
0.14041 0.07212 0.0
0.13996 0.0724 0.0
0.13951 0.07267 0.0
0.13906 0.07293 0.0
0.1386 0.07317 0.0
0.13813 0.07341 0.0
0.13766 0.07364 0.0
0.13718 0.07386 0.0
0.1367 0.07407 0.0
0.13622 0.07426 0.0
0.13573 0.07445 0.0
0.13524 0.07463 0.0
0.13474 0.0748 0.0
0.13424 0.07495 0.0
0.13374 0.0751 0.0
0.13324 0.07524 0.0
0.13273 0.07536 0.0
0.13222 0.07547 0.0
0.1317 0.07558 0.0
0.13119 0.07567 0.0
0.13067 0.07575 0.0
0.13015 0.07582 0.0
0.12964 0.07589 0.0
0.12911 0.07593 0.0
0.12859 0.07597 0.0
0.12807 0.076 0.0
0.12755 0.07602 0.0
0.12702 0.07602 0.0
0.1265 0.07602 0.0
0.12598 0.076 0.0
0.12546 0.07597 0.0
0.12493 0.07593 0.0
0.12441 0.07589 0.0
0.12389 0.07583 0.0
0.12337 0.07575 0.0
0.12286 0.07567 0.0
0.12234 0.07558 0.0
0.12183 0.07548 0.0
0.12132 0.07536 0.0
0.12081 0.07524 0.0
0.12031 0.0751 0.0
0.1198 0.07495 0.0
0.1193 0.0748 0.0
0.11881 0.07463 0.0
0.11832 0.07445 0.0
0.11783 0.07427 0.0
0.11734 0.07407 0.0
0.11686 0.07386 0.0
0.11639 0.07364 0.0
0.11592 0.07341 0.0
0.11545 0.07318 0.0
0.11499 0.07293 0.0
0.11453 0.07267 0.0
0.11408 0.0724 0.0
0.11364 0.07213 0.0
0.1132 0.07184 0.0
0.11277 0.07155 0.0
0.11234 0.07124 0.0
0.11192 0.07093 0.0
0.11151 0.07061 0.0
0.1111 0.07028 0.0
0.1107 0.06994 0.0
0.11031 0.0696 0.0
0.10992 0.06924 0.0
0.10954 0.06888 0.0
0.10917 0.06851 0.0
0.10881 0.06813 0.0
0.10846 0.06774 0.0
0.10811 0.06735 0.0
0.10777 0.06695 0.0
0.10745 0.06654 0.0
0.10712 0.06613 0.0
0.10681 0.06571 0.0
0.10651 0.06528 0.0
0.10622 0.06485 0.0
0.10593 0.06441 0.0
0.10565 0.06396 0.0
0.10539 0.06351 0.0
0.10513 0.06305 0.0
0.10488 0.06259 0.0
0.10465 0.06213 0.0
0.10442 0.06165 0.0
0.1042 0.06118 0.0
0.10399 0.0607 0.0
0.1038 0.06021 0.0
0.10361 0.05972 0.0
0.10343 0.05923 0.0
0.10326 0.05873 0.0
0.10311 0.05823 0.0
0.10296 0.05773 0.0
0.10283 0.05722 0.0
0.1027 0.05671 0.0
0.10259 0.0562 0.0
0.10248 0.05569 0.0
0.10239 0.05517 0.0
0.10231 0.05466 0.0
0.10224 0.05414 0.0
0.10218 0.05362 0.0
0.10213 0.05309 0.0
0.10209 0.05257 0.0
0.10206 0.05205 0.0
0.10205 0.05152 0.0
0.10204 0.051 0.0
0.10205 0.05048 0.0
0.10206 0.04995 0.0
0.10209 0.04943 0.0
0.10213 0.04891 0.0
0.10218 0.04838 0.0
0.10224 0.04786 0.0
0.10231 0.04734 0.0
0.10239 0.04683 0.0
0.10248 0.04631 0.0
0.10259 0.0458 0.0
0.1027 0.04529 0.0
0.10283 0.04478 0.0
0.10296 0.04427 0.0
0.10311 0.04377 0.0
0.10326 0.04327 0.0
0.10343 0.04277 0.0
0.10361 0.04228 0.0
0.1038 0.04179 0.0
0.10399 0.0413 0.0
0.1042 0.04082 0.0
0.10442 0.04035 0.0
0.10465 0.03987 0.0
0.10488 0.03941 0.0
0.10513 0.03895 0.0
0.10539 0.03849 0.0
0.10565 0.03804 0.0
0.10593 0.03759 0.0
0.10622 0.03715 0.0
0.10651 0.03672 0.0
0.10681 0.03629 0.0
0.10712 0.03587 0.0
0.10745 0.03546 0.0
0.10777 0.03505 0.0
0.10811 0.03465 0.0
0.10846 0.03426 0.0
0.10881 0.03387 0.0
0.10917 0.03349 0.0
0.10954 0.03312 0.0
0.10992 0.03276 0.0
0.11031 0.0324 0.0
0.1107 0.03206 0.0
0.1111 0.03172 0.0
0.11151 0.03139 0.0
0.11192 0.03107 0.0
0.11234 0.03076 0.0
0.11277 0.03045 0.0
0.1132 0.03016 0.0
0.11364 0.02987 0.0
0.11408 0.0296 0.0
0.11453 0.02933 0.0
0.11499 0.02907 0.0
0.11545 0.02882 0.0
0.11592 0.02859 0.0
0.11639 0.02836 0.0
0.11686 0.02814 0.0
0.11734 0.02793 0.0
0.11783 0.02773 0.0
0.11832 0.02755 0.0
0.11881 0.02737 0.0
0.1193 0.0272 0.0
0.1198 0.02705 0.0
0.12031 0.0269 0.0
0.12081 0.02676 0.0
0.12132 0.02664 0.0
0.12183 0.02652 0.0
0.12234 0.02642 0.0
0.12286 0.02633 0.0
0.12337 0.02625 0.0
0.12389 0.02617 0.0
0.12441 0.02611 0.0
0.12493 0.02607 0.0
0.12546 0.02603 0.0
0.12598 0.026 0.0
0.1265 0.02598 0.0
0.12702 0.02598 0.0
0.12755 0.02598 0.0
0.12807 0.026 0.0
0.12859 0.02603 0.0
0.12911 0.02607 0.0
0.12964 0.02611 0.0
0.13015 0.02618 0.0
0.13067 0.02625 0.0
0.13119 0.02633 0.0
0.1317 0.02642 0.0
0.13222 0.02653 0.0
0.13273 0.02664 0.0
0.13324 0.02676 0.0
0.13374 0.0269 0.0
0.13424 0.02705 0.0
0.13474 0.0272 0.0
0.13524 0.02737 0.0
0.13573 0.02755 0.0
0.13622 0.02774 0.0
0.1367 0.02793 0.0
0.13718 0.02814 0.0
0.13766 0.02836 0.0
0.13813 0.02859 0.0
0.1386 0.02883 0.0
0.13906 0.02907 0.0
0.13951 0.02933 0.0
0.13996 0.0296 0.0
0.14041 0.02988 0.0
0.14085 0.03016 0.0
0.14128 0.03046 0.0
0.14171 0.03076 0.0
0.14213 0.03107 0.0
0.14254 0.03139 0.0
0.14295 0.03172 0.0
0.14335 0.03206 0.0
0.14374 0.03241 0.0
0.14412 0.03276 0.0
0.1445 0.03312 0.0
0.14487 0.0335 0.0
0.14523 0.03387 0.0
0.14559 0.03426 0.0
0.14593 0.03465 0.0
0.14627 0.03505 0.0
0.1466 0.03546 0.0
0.14692 0.03587 0.0
0.14723 0.03629 0.0
0.14754 0.03672 0.0
0.14783 0.03716 0.0
0.14812 0.03759 0.0
0.14839 0.03804 0.0
0.14866 0.03849 0.0
0.14891 0.03895 0.0
0.14916 0.03941 0.0
0.1494 0.03988 0.0
0.14963 0.04035 0.0
0.14984 0.04082 0.0
0.15005 0.04131 0.0
0.15025 0.04179 0.0
0.15044 0.04228 0.0
0.15061 0.04277 0.0
0.15078 0.04327 0.0
0.15094 0.04377 0.0
0.15108 0.04427 0.0
0.15122 0.04478 0.0
0.15134 0.04529 0.0
0.15146 0.0458 0.0
0.15156 0.04631 0.0
0.15165 0.04683 0.0
0.15174 0.04735 0.0
0.15181 0.04786 0.0
0.15187 0.04839 0.0
0.15192 0.04891 0.0
0.15196 0.04943 0.0
0.15198 0.04995 0.0
0.152 0.05048 0.0
0.20245 0.05033 0.0
0.05158 0.05167 0.0
0.075 0.03233 0.0
0.07582 0.07108 0.0
0.17822 0.03093 0.0
0.17904 0.06966 0.0
0.16164 0.08027 0.0
0.0924 0.02172 0.0
0.08169 0.05152 0.0
0.17235 0.05048 0.0
0.09291 0.08091 0.0
0.16113 0.02109 0.0
0.08933 0.06459 0.0
0.16506 0.06381 0.0
0.08899 0.03819 0.0
0.16471 0.03741 0.0
0.10626 0.01637 0.0
0.14779 0.08562 0.0
0.14645 0.01631 0.0
0.1076 0.0857 0.0
[...]
CELL_DATA 11972
VECTORS Deformacao_Termica float
0.000214047544538 0.000214047544538 0.0
0.000441152455453 0.000441152455453 0.0
4.16158966003e-05 4.16158966003e-05 0.0
0.000613584103421 0.000613584103421 0.0
0.000213317389058 0.000213317389058 0.0
0.000441882610935 0.000441882610935 0.0
0.000208192653762 0.000208192653762 0.0
0.000447007346248 0.000447007346248 0.0
0.000220561228729 0.000220561228729 0.0
0.000434638771265 0.000434638771265 0.0
0.00036854479372 0.00036854479372 0.0
0.000286655206298 0.000286655206298 0.0
0.000282338179048 0.000282338179048 0.0
0.000372861820272 0.000372861820272 0.0
4.24936250087e-05 4.24936250087e-05 0.0
0.000612706375013 0.000612706375013 0.0
0.000429333881929 0.000429333881929 0.0
0.000225866118025 0.000225866118025 0.0
4.77384192919e-05 4.77384192919e-05 0.0
0.000607461580733 0.000607461580733 0.0
0.000180922855035 0.000180922855035 0.0
0.000474277144982 0.000474277144982 0.0
0.000621847575625 0.000621847575625 0.0
3.33524243976e-05 3.33524243976e-05 0.0
4.52949445081e-05 4.52949445081e-05 0.0
0.000609905055516 0.000609905055516 0.0
0.000301261367273 0.000301261367273 0.0
0.000353938632814 0.000353938632814 0.0
6.35434917164e-05 6.35434917164e-05 0.0
0.000591656508309 0.000591656508309 0.0
0.000184905751858 0.000184905751858 0.0
0.000470294248158 0.000470294248158 0.0
6.3276326214e-05 6.3276326214e-05 0.0
0.000591923673811 0.000591923673811 0.0
0.000493549976933 0.000493549976933 0.0
0.000161650023123 0.000161650023123 0.0
0.000625536737541 0.000625536737541 0.0
2.96632624822e-05 2.96632624822e-05 0.0
0.000208338070347 0.000208338070347 0.0
0.000446861929661 0.000446861929661 0.0
0.000494854577041 0.000494854577041 0.0
0.000160345423013 0.000160345423013 0.0
9.42523787865e-05 9.42523787865e-05 0.0
0.000560947621239 0.000560947621239 0.0
0.000458787959907 0.000458787959907 0.0
0.000196412040161 0.000196412040161 0.0
0.000178908491004 0.000178908491004 0.0
0.000476291509061 0.000476291509061 0.0
0.000462018133577 0.000462018133577 0.0
0.000193181866532 0.000193181866532 0.0
0.000460637756091 0.000460637756091 0.0
0.000194562244088 0.000194562244088 0.0
1.67711748374e-05 1.67711748374e-05 0.0
0.000638428825186 0.000638428825186 0.0
1.50879817587e-05 1.50879817587e-05 0.0
0.000640112018265 0.000640112018265 0.0
0.000522189418422 0.000522189418422 0.0
0.000133010581602 0.000133010581602 0.0
0.000442155569252 0.000442155569252 0.0
0.000213044430738 0.000213044430738 0.0
0.000196732197305 0.000196732197305 0.0
0.00045846780276 0.00045846780276 0.0
0.000518409395744 0.000518409395744 0.0
0.000136790604279 0.000136790604279 0.0
0.000104516020204 0.000104516020204 0.0
0.000550683979825 0.000550683979825 0.0
6.43545039784e-05 6.43545039784e-05 0.0
0.000590845496046 0.000590845496046 0.0
0.000508999043139 0.000508999043139 0.0
0.000146200956884 0.000146200956884 0.0
0.000104573711654 0.000104573711654 0.0
0.000550626288375 0.000550626288375 0.0
9.31294264541e-06 9.31294264541e-06 0.0
0.000645887057378 0.000645887057378 0.0
0.000223334309167 0.000223334309167 0.0
0.000431865690828 0.000431865690828 0.0
0.000178971438021 0.000178971438021 0.0
0.000476228562047 0.000476228562047 0.0
0.000428129091635 0.000428129091635 0.0
0.0002270709096 0.0002270709096 0.0
0.000450879607409 0.000450879607409 0.0
0.000204320392926 0.000204320392926 0.0
0.00064301838253 0.00064301838253 0.0
1.21816174937e-05 1.21816174937e-05 0.0
0.000302187229173 0.000302187229173 0.0
0.000353012768263 0.000353012768263 0.0
0.000141596559858 0.000141596559858 0.0
0.000513603440175 0.000513603440175 0.0
0.000116054945864 0.000116054945864 0.0
0.000539145054162 0.000539145054162 0.0
0.000192044871728 0.000192044871728 0.0
0.000463155128385 0.000463155128385 0.0
0.000462069662179 0.000462069662179 0.0
0.000193130337842 0.000193130337842 0.0
0.000192362537642 0.000192362537642 0.0
0.000462837462373 0.000462837462373 0.0
0.000236491695319 0.000236491695319 0.0
0.000418708306379 0.000418708306379 0.0
6.57216985366e-05 6.57216985366e-05 0.0
0.000589478301488 0.000589478301488 0.0
0.000162214242731 0.000162214242731 0.0
0.000492985757315 0.000492985757315 0.0
0.000299704469672 0.000299704469672 0.0
0.00035549552743 0.00035549552743 0.0
0.000369707703325 0.000369707703325 0.0
0.000285492296252 0.000285492296252 0.0
0.000469005094333 0.000469005094333 0.0
0.000186194905703 0.000186194905703 0.0
0.000193077646897 0.000193077646897 0.0
0.00046212235326 0.00046212235326 0.0
6.09105922983e-05 6.09105922983e-05 0.0
0.000594289407726 0.000594289407726 0.0
0.000475188053693 0.000475188053693 0.0
0.00018001194633 0.00018001194633 0.0
5.02356513361e-05 5.02356513361e-05 0.0
0.000604964348688 0.000604964348688 0.0
0.000145976566381 0.000145976566381 0.0
0.000509223433644 0.000509223433644 0.0
0.000444850722912 0.000444850722912 0.0
0.00021034927709 0.00021034927709 0.0
9.25498399953e-05 9.25498399953e-05 0.0
0.00056265016003 0.00056265016003 0.0
0.000387507069106 0.000387507069106 0.0
0.000267692930644 0.000267692930644 0.0
0.000389027556917 0.000389027556917 0.0
0.000266172443054 0.000266172443054 0.0
0.000175432923283 0.000175432923283 0.0
0.00047976707669 0.00047976707669 0.0
0.000513103532302 0.000513103532302 0.0
0.00014209646771 0.00014209646771 0.0
8.53457066705e-05 8.53457066705e-05 0.0
0.000569854293346 0.000569854293346 0.0
0.000179829867799 0.000179829867799 0.0
0.00047537013229 0.00047537013229 0.0
0.000461716977806 0.000461716977806 0.0
0.000193483022307 0.000193483022307 0.0
0.000368069416079 0.000368069416079 0.0
0.00028713058396 0.00028713058396 0.0
0.000269553880266 0.000269553880266 0.0
0.000385646117531 0.000385646117531 0.0
0.000508374856661 0.000508374856661 0.0
0.000146825143373 0.000146825143373 0.0
0.000280921473199 0.000280921473199 0.0
0.000374278526368 0.000374278526368 0.0
0.000390526264126 0.000390526264126 0.0
0.000264673735825 0.000264673735825 0.0
0.000247860668824 0.000247860668824 0.0
0.000407339331108 0.000407339331108 0.0
0.00019313724678 0.00019313724678 0.0
0.000462062753367 0.000462062753367 0.0
0.000462428636811 0.000462428636811 0.0
0.000192771363313 0.000192771363313 0.0
0.000394487963565 0.000394487963565 0.0
0.000260712036356 0.000260712036356 0.0
0.000200395376028 0.000200395376028 0.0
0.000454804624015 0.000454804624015 0.0
0.000450654975712 0.000450654975712 0.0
0.000204545024311 0.000204545024311 0.0
0.000462129369817 0.000462129369817 0.0
0.000193070630291 0.000193070630291 0.0
5.49395358159e-05 5.49395358159e-05 0.0
0.000600260464209 0.000600260464209 0.0
5.23475021992e-05 5.23475021992e-05 0.0
0.000602852497823 0.000602852497823 0.0
0.000464545571256 0.000464545571256 0.0
0.000190654428861 0.000190654428861 0.0
0.00037940113491 0.00037940113491 0.0
0.00027579886489 0.00027579886489 0.0
0.000445800374429 0.000445800374429 0.0
0.000209399625576 0.000209399625576 0.0
0.000197297236875 0.000197297236875 0.0
0.000457902763182 0.000457902763182 0.0
0.000138859023967 0.000138859023967 0.0
0.000516340976066 0.000516340976066 0.0
0.000469993638288 0.000469993638288 0.0
0.000185206361741 0.000185206361741 0.0
0.000453057311637 0.000453057311637 0.0
0.000202142688395 0.000202142688395 0.0
0.00043639657489 0.00043639657489 0.0
0.000218803425086 0.000218803425086 0.0
0.0004536107483 0.0004536107483 0.0
0.000201589251734 0.000201589251734 0.0
0.000454941844503 0.000454941844503 0.0
0.000200258155534 0.000200258155534 0.0
0.000190212693259 0.000190212693259 0.0
0.000464987306856 0.000464987306856 0.0
0.000547952355845 0.000547952355845 0.0
0.000107247644171 0.000107247644171 0.0
0.000305887570212 0.000305887570212 0.0
0.000349312429887 0.000349312429887 0.0
0.000462792509446 0.000462792509446 0.0
0.00019240749072 0.00019240749072 0.0
0.000276097745687 0.000276097745687 0.0
0.000379102254095 0.000379102254095 0.0
3.4761661917e-05 3.4761661917e-05 0.0
0.000620438338107 0.000620438338107 0.0
0.000263733541085 0.000263733541085 0.0
0.000391466458934 0.000391466458934 0.0
4.94556018792e-06 4.94556018792e-06 0.0
0.000650254439835 0.000650254439835 0.0
0.000439751654935 0.000439751654935 0.0
0.00021544834505 0.00021544834505 0.0
0.000226095301099 0.000226095301099 0.0
0.000429104698854 0.000429104698854 0.0
0.000113805118293 0.000113805118293 0.0
0.000541394881733 0.000541394881733 0.0
0.000454096614744 0.000454096614744 0.0
0.000201103385493 0.000201103385493 0.0
0.000209263862732 0.000209263862732 0.0
0.000445936137275 0.000445936137275 0.0
0.000283835157634 0.000283835157634 0.0
0.000371364841631 0.000371364841631 0.0
0.000454432285835 0.000454432285835 0.0
0.000200767714205 0.000200767714205 0.0
0.000207125302861 0.000207125302861 0.0
0.00044807469715 0.00044807469715 0.0
0.000360585872925 0.000360585872925 0.0
0.000294614126362 0.000294614126362 0.0
0.000400466525268 0.000400466525268 0.0
0.000254733474633 0.000254733474633 0.0
0.000311453697896 0.000311453697896 0.0
0.000343746302246 0.000343746302246 0.0
0.000442848442351 0.000442848442351 0.0
0.000212351557645 0.000212351557645 0.0
0.000314858794734 0.000314858794734 0.0
0.000340341207645 0.000340341207645 0.0
0.000391261795078 0.000391261795078 0.0
0.000263938204832 0.000263938204832 0.0
0.000451213831546 0.000451213831546 0.0
0.000203986168798 0.000203986168798 0.0
0.0001978207429 0.0001978207429 0.0
0.000457379257153 0.000457379257153 0.0
0.000130979712472 0.000130979712472 0.0
0.000524220287555 0.000524220287555 0.0
0.00018664457126 0.00018664457126 0.0
0.000468555428758 0.000468555428758 0.0
0.000365416335363 0.000365416335363 0.0
0.000289783664609 0.000289783664609 0.0
0.000446416901751 0.000446416901751 0.0
0.000208783098621 0.000208783098621 0.0
0.000445005203106 0.000445005203106 0.0
0.000210194796814 0.000210194796814 0.0
0.000547534340445 0.000547534340445 0.0
0.000107665659569 0.000107665659569 0.0
0.000463049366303 0.000463049366303 0.0
0.000192150633718 0.000192150633718 0.0
0.000222659435246 0.000222659435246 0.0
0.000432540564724 0.000432540564724 0.0
8.88986853982e-05 8.88986853982e-05 0.0
0.000566301314629 0.000566301314629 0.0
0.0003206889518 0.0003206889518 0.0
0.000334511052956 0.000334511052956 0.0
0.000192804221517 0.000192804221517 0.0
0.000462395778611 0.000462395778611 0.0
0.000454938218165 0.000454938218165 0.0
0.000200261781878 0.000200261781878 0.0
0.000511223319983 0.000511223319983 0.0
0.000143976680052 0.000143976680052 0.0
0.000515083737302 0.000515083737302 0.0
0.000140116262722 0.000140116262722 0.0
0.000481554898246 0.000481554898246 0.0
0.000173645101831 0.000173645101831 0.0
0.000156719923861 0.000156719923861 0.0
0.000498480076183 0.000498480076183 0.0
0.00020828327197 0.00020828327197 0.0
0.00044691672804 0.00044691672804 0.0
0.000242783491125 0.000242783491125 0.0
0.000412416508772 0.000412416508772 0.0
0.000489847782191 0.000489847782191 0.0
0.000165352217803 0.000165352217803 0.0
0.000245287328492 0.000245287328492 0.0
0.000409912671404 0.000409912671404 0.0
5.08731470242e-05 5.08731470242e-05 0.0
0.000604326853 0.000604326853 0.0
0.000513256044555 0.000513256044555 0.0
0.000141943955476 0.000141943955476 0.0
0.000151067768207 0.000151067768207 0.0
0.000504132231834 0.000504132231834 0.0
6.52706379445e-05 6.52706379445e-05 0.0
0.000589929362075 0.000589929362075 0.0
0.000296028218532 0.000296028218532 0.0
0.000359171781937 0.000359171781937 0.0
0.00019532636696 0.00019532636696 0.0
0.000459873633237 0.000459873633237 0.0
0.000209833215335 0.000209833215335 0.0
0.000445366784927 0.000445366784927 0.0
0.000582389177665 0.000582389177665 0.0
7.28108223602e-05 7.28108223602e-05 0.0
0.000167518400925 0.000167518400925 0.0
0.000487681599071 0.000487681599071 0.0
0.000236928273592 0.000236928273592 0.0
0.000418271725892 0.000418271725892 0.0
0.000508297254496 0.000508297254496 0.0
0.000146902745547 0.000146902745547 0.0
0.000421316435489 0.000421316435489 0.0
0.000233883566947 0.000233883566947 0.0
0.00011655742598 0.00011655742598 0.0
0.000538642574042 0.000538642574042 0.0
0.000465586577673 0.000465586577673 0.0
0.000189613422425 0.000189613422425 0.0
0.000461657927389 0.000461657927389 0.0
0.000193542072723 0.000193542072723 0.0
0.00013783463909 0.00013783463909 0.0
0.000517365360919 0.000517365360919 0.0
0.000131242827971 0.000131242827971 0.0
0.000523957172055 0.000523957172055 0.0
0.000388713398507 0.000388713398507 0.0
0.0002664866015 0.0002664866015 0.0
0.000319142529972 0.000319142529972 0.0
0.000336057470532 0.000336057470532 0.0
0.000443492803705 0.000443492803705 0.0
0.000211707196289 0.000211707196289 0.0
0.000189761133445 0.000189761133445 0.0
0.000465438866677 0.000465438866677 0.0
0.000447526512325 0.000447526512325 0.0
0.000207673488048 0.000207673488048 0.0
0.000458321017301 0.000458321017301 0.0
0.000196878982727 0.000196878982727 0.0
0.000466639793795 0.000466639793795 0.0
0.000188560206341 0.000188560206341 0.0
0.000514898455192 0.000514898455192 0.0
0.000140301544807 0.000140301544807 0.0
0.000208680124796 0.000208680124796 0.0
0.000446519875213 0.000446519875213 0.0
0.000117430562477 0.000117430562477 0.0
0.000537769437553 0.000537769437553 0.0
0.000177836874402 0.000177836874402 0.0
0.000477363125666 0.000477363125666 0.0
0.000171594997284 0.000171594997284 0.0
0.000483605002692 0.000483605002692 0.0
0.000387676959031 0.000387676959031 0.0
0.000267523032354 0.000267523032354 0.0
7.78579047948e-05 7.78579047948e-05 0.0
0.000577342095225 0.000577342095225 0.0
0.000467542932158 0.000467542932158 0.0
0.00018765706788 0.00018765706788 0.0
0.000629625141609 0.000629625141609 0.0
2.55748584143e-05 2.55748584143e-05 0.0
0.000189718650807 0.000189718650807 0.0
0.000465481349312 0.000465481349312 0.0
0.000455435008912 0.000455435008912 0.0
0.000199764991104 0.000199764991104 0.0
0.000186421374052 0.000186421374052 0.0
0.000468778626013 0.000468778626013 0.0
0.000443694971019 0.000443694971019 0.0
0.00021150502898 0.00021150502898 0.0
0.000147934198418 0.000147934198418 0.0
0.000507265801604 0.000507265801604 0.0
0.000511700518863 0.000511700518863 0.0
0.000143499481168 0.000143499481168 0.0
0.000178585892928 0.000178585892928 0.0
0.000476614107159 0.000476614107159 0.0
5.94090985793e-05 5.94090985793e-05 0.0
0.000595790901446 0.000595790901446 0.0
0.000155050391865 0.000155050391865 0.0
0.000500149608178 0.000500149608178 0.0
0.000409096770331 0.000409096770331 0.0
0.000246103234996 0.000246103234996 0.0
0.000337703655035 0.000337703655035 0.0
0.000317496345365 0.000317496345365 0.0
0.000511584268072 0.000511584268072 0.0
0.000143615731949 0.000143615731949 0.0
0.000420466107043 0.000420466107043 0.0
0.00023473389263 0.00023473389263 0.0
0.000280902308525 0.000280902308525 0.0
0.000374297690247 0.000374297690247 0.0
0.000458288001627 0.000458288001627 0.0
0.000196911998429 0.000196911998429 0.0
0.000392494632062 0.000392494632062 0.0
0.000262705367722 0.000262705367722 0.0
0.000629088911952 0.000629088911952 0.0
2.61110880705e-05 2.61110880705e-05 0.0
0.000175026026993 0.000175026026993 0.0
0.000480173973024 0.000480173973024 0.0
0.000461694687049 0.000461694687049 0.0
0.000193505313066 0.000193505313066 0.0
0.000235450279 0.000235450279 0.0
0.000419749720946 0.000419749720946 0.0
0.0001045576674 0.0001045576674 0.0
0.000550642332618 0.000550642332618 0.0
0.000227499281019 0.000227499281019 0.0
0.000427700719491 0.000427700719491 0.0
0.00053747497686 0.00053747497686 0.0
0.000117725023171 0.000117725023171 0.0
0.000470955946636 0.000470955946636 0.0
0.000184244053458 0.000184244053458 0.0
0.000427671139488 0.000427671139488 0.0
0.00022752886184 0.00022752886184 0.0
0.000458707936465 0.000458707936465 0.0
0.000196492063596 0.000196492063596 0.0
0.000509196852622 0.000509196852622 0.0
0.00014600314742 0.00014600314742 0.0
0.000467180325727 0.000467180325727 0.0
0.000188019674313 0.000188019674313 0.0
0.00033405262843 0.00033405262843 0.0
0.000321147372171 0.000321147372171 0.0
0.000244076391708 0.000244076391708 0.0
0.000411123608183 0.000411123608183 0.0
0.000457311356864 0.000457311356864 0.0
0.00019788864336 0.00019788864336 0.0
0.00045228360085 0.00045228360085 0.0
0.00020291639916 0.00020291639916 0.0
0.000466771342839 0.000466771342839 0.0
0.000188428657293 0.000188428657293 0.0
0.00043130070365 0.00043130070365 0.0
0.000223899297488 0.000223899297488 0.0
0.000467264991238 0.000467264991238 0.0
0.000187935008895 0.000187935008895 0.0
8.08889546507e-05 8.08889546507e-05 0.0
0.000574311045366 0.000574311045366 0.0
0.000257418658154 0.000257418658154 0.0
0.000397781341782 0.000397781341782 0.0
0.000238150560305 0.000238150560305 0.0
0.000417049439653 0.000417049439653 0.0
0.000444459019601 0.000444459019601 0.0
0.000210740980866 0.000210740980866 0.0
0.000431274478804 0.000431274478804 0.0
0.000223925521157 0.000223925521157 0.0
0.000108841858924 0.000108841858924 0.0
0.000546358141101 0.000546358141101 0.0
0.000544273926669 0.000544273926669 0.0
0.000110926073361 0.000110926073361 0.0
0.000451452158421 0.000451452158421 0.0
0.000203747841919 0.000203747841919 0.0
0.000195008179998 0.000195008179998 0.0
0.000460191820181 0.000460191820181 0.0
0.000444241167021 0.000444241167021 0.0
0.000210958832979 0.000210958832979 0.0
0.000381316367196 0.000381316367196 0.0
0.000273883632594 0.000273883632594 0.0
0.000450164013549 0.000450164013549 0.0
0.000205035986473 0.000205035986473 0.0
0.000327272163088 0.000327272163088 0.0
0.000327927838093 0.000327927838093 0.0
0.000417486338056 0.000417486338056 0.0
0.000237713663391 0.000237713663391 0.0
0.000391432602052 0.000391432602052 0.0
0.000263767377353 0.000263767377353 0.0
0.000518541989861 0.000518541989861 0.0
0.000136658010162 0.000136658010162 0.0
0.000452733263095 0.000452733263095 0.0
0.000202466736939 0.000202466736939 0.0
0.000252807760986 0.000252807760986 0.0
0.000402392238671 0.000402392238671 0.0
0.000443612333595 0.000443612333595 0.0
0.000211587666912 0.000211587666912 0.0
0.00011954912905 0.00011954912905 0.0
0.000535650870972 0.000535650870972 0.0
5.19059710433e-05 5.19059710433e-05 0.0
0.000603294028982 0.000603294028982 0.0
0.000322980040119 0.000322980040119 0.0
0.000332219963259 0.000332219963259 0.0
0.000643891772509 0.000643891772509 0.0
1.13082275144e-05 1.13082275144e-05 0.0
2.78495722724e-05 2.78495722724e-05 0.0
0.000627350427752 0.000627350427752 0.0
0.000457076240252 0.000457076240252 0.0
0.000198123759773 0.000198123759773 0.0
0.000207604205735 0.000207604205735 0.0
0.000447595794266 0.000447595794266 0.0
0.000284389995141 0.000284389995141 0.0
0.000370810004243 0.000370810004243 0.0
0.000286483442169 0.000286483442169 0.0
0.000368716557172 0.000368716557172 0.0
0.000481822961095 0.000481822961095 0.0
0.000173377038981 0.000173377038981 0.0
0.000451361391822 0.000451361391822 0.0
0.000203838608204 0.000203838608204 0.0
0.000437748435578 0.000437748435578 0.0
0.000217451564402 0.000217451564402 0.0
0.000149019244362 0.000149019244362 0.0
0.000506180755676 0.000506180755676 0.0
0.000490304142156 0.000490304142156 0.0
0.000164895857866 0.000164895857866 0.0
0.000433979554179 0.000433979554179 0.0
0.000221220446678 0.000221220446678 0.0
0.00041806350878 0.00041806350878 0.0
0.000237136492037 0.000237136492037 0.0
0.000166040503114 0.000166040503114 0.0
0.000489159496887 0.000489159496887 0.0
0.00019300177266 0.00019300177266 0.0
0.000462198227508 0.000462198227508 0.0
0.000132798493503 0.000132798493503 0.0
0.000522401506527 0.000522401506527 0.0
0.000141976902031 0.000141976902031 0.0
0.000513223097977 0.000513223097977 0.0
2.59808876798e-05 2.59808876798e-05 0.0
0.000629219112344 0.000629219112344 0.0
0.000377194271269 0.000377194271269 0.0